LAMMPS data file. CGCMM style. atom_style full generated by VMD/TopoTools v1.6 on Thu Mar 24 17:06:05 CDT 2016
 400 atoms
 0 bonds
 0 angles
 0 dihedrals
 0 impropers
 1 atom types
 0 bond types
 0 angle types
 0 dihedral types
 0 improper types

 0.00000 30.0 xlo xhi
 0.00000 30.0 ylo yhi
 -0.1000 0.1 zlo zhi

 Masses

 1 18.01500

 Atoms

1 1 1 0.000000 15.774000 28.822001 0.000000 # CT 
2 2 1 0.000000 30.141001 -0.418000 0.000000 # CT 
3 3 1 0.000000 4.403000 6.789000 0.000000 # CT 
4 4 1 0.000000 25.256001 2.852000 0.000000 # CT 
5 5 1 0.000000 28.414000 0.481000 0.000000 # CT 
6 6 1 0.000000 23.549999 1.258000 0.000000 # CT 
7 7 1 0.000000 2.905000 25.040001 0.000000 # CT 
8 8 1 0.000000 8.030000 11.588000 0.000000 # CT 
9 9 1 0.000000 15.024000 22.868000 0.000000 # CT 
10 10 1 0.000000 4.159000 21.334000 0.000000 # CT 
11 11 1 0.000000 14.057000 12.516000 0.000000 # CT 
12 12 1 0.000000 8.914000 13.322000 0.000000 # CT 
13 13 1 0.000000 18.174999 23.507999 0.000000 # CT 
14 14 1 0.000000 28.506001 23.690001 0.000000 # CT 
15 15 1 0.000000 5.786000 3.085000 0.000000 # CT 
16 16 1 0.000000 22.510000 16.014999 0.000000 # CT 
17 17 1 0.000000 16.867001 20.542999 0.000000 # CT 
18 18 1 0.000000 20.674999 18.186001 0.000000 # CT 
19 19 1 0.000000 11.424000 8.169000 0.000000 # CT 
20 20 1 0.000000 13.459000 3.667000 0.000000 # CT 
21 21 1 0.000000 18.281000 12.255000 0.000000 # CT 
22 22 1 0.000000 14.541000 16.701000 0.000000 # CT 
23 23 1 0.000000 8.876000 24.139000 0.000000 # CT 
24 24 1 0.000000 28.694000 21.830999 0.000000 # CT 
25 25 1 0.000000 2.849000 1.483000 0.000000 # CT 
26 26 1 0.000000 6.639000 1.305000 0.000000 # CT 
27 27 1 0.000000 12.843000 30.315001 0.000000 # CT 
28 28 1 0.000000 8.290000 8.519000 0.000000 # CT 
29 29 1 0.000000 10.686000 6.306000 0.000000 # CT 
30 30 1 0.000000 2.871000 11.677000 0.000000 # CT 
31 31 1 0.000000 18.639000 27.476000 0.000000 # CT 
32 32 1 0.000000 28.528999 4.363000 0.000000 # CT 
33 33 1 0.000000 6.292000 18.424999 0.000000 # CT 
34 34 1 0.000000 7.957000 16.138000 0.000000 # CT 
35 35 1 0.000000 14.432000 25.948000 0.000000 # CT 
36 36 1 0.000000 30.184000 9.236000 0.000000 # CT 
37 37 1 0.000000 21.870001 1.442000 0.000000 # CT 
38 38 1 0.000000 24.177000 5.825000 0.000000 # CT 
39 39 1 0.000000 3.533000 -0.194000 0.000000 # CT 
40 40 1 0.000000 11.645000 10.622000 0.000000 # CT 
41 41 1 0.000000 16.419001 25.716999 0.000000 # CT 
42 42 1 0.000000 26.834000 5.426000 0.000000 # CT 
43 43 1 0.000000 15.088000 2.964000 0.000000 # CT 
44 44 1 0.000000 -0.147000 21.837000 0.000000 # CT 
45 45 1 0.000000 27.042000 11.390000 0.000000 # CT 
46 46 1 0.000000 18.855000 20.357000 0.000000 # CT 
47 47 1 0.000000 21.205000 11.074000 0.000000 # CT 
48 48 1 0.000000 24.676001 -0.339000 0.000000 # CT 
49 49 1 0.000000 17.987000 1.457000 0.000000 # CT 
50 50 1 0.000000 24.181000 7.808000 0.000000 # CT 
51 51 1 0.000000 22.150999 23.077999 0.000000 # CT 
52 52 1 0.000000 -0.379000 28.062000 0.000000 # CT 
53 53 1 0.000000 4.616000 28.527000 0.000000 # CT 
54 54 1 0.000000 21.309000 13.069000 0.000000 # CT 
55 55 1 0.000000 13.053000 -0.130000 0.000000 # CT 
56 56 1 0.000000 12.909000 9.318000 0.000000 # CT 
57 57 1 0.000000 16.653999 27.698000 0.000000 # CT 
58 58 1 0.000000 22.601999 27.049000 0.000000 # CT 
59 59 1 0.000000 7.465000 14.536000 0.000000 # CT 
60 60 1 0.000000 -0.224000 -0.258000 0.000000 # CT 
61 61 1 0.000000 18.049999 6.071000 0.000000 # CT 
62 62 1 0.000000 16.697001 18.532000 0.000000 # CT 
63 63 1 0.000000 8.312000 20.115000 0.000000 # CT 
64 64 1 0.000000 2.882000 19.813999 0.000000 # CT 
65 65 1 0.000000 10.278000 4.364000 0.000000 # CT 
66 66 1 0.000000 26.915001 24.688000 0.000000 # CT 
67 67 1 0.000000 13.467000 15.708000 0.000000 # CT 
68 68 1 0.000000 19.051001 22.396999 0.000000 # CT 
69 69 1 0.000000 13.034000 7.332000 0.000000 # CT 
70 70 1 0.000000 26.606001 -0.249000 0.000000 # CT 
71 71 1 0.000000 1.755000 21.336000 0.000000 # CT 
72 72 1 0.000000 17.292000 24.612000 0.000000 # CT 
73 73 1 0.000000 14.916000 -0.307000 0.000000 # CT 
74 74 1 0.000000 30.173000 30.240999 0.000000 # CT 
75 75 1 0.000000 21.482000 26.149000 0.000000 # CT 
76 76 1 0.000000 3.561000 30.112000 0.000000 # CT 
77 77 1 0.000000 4.526000 16.492001 0.000000 # CT 
78 78 1 0.000000 11.815000 28.339001 0.000000 # CT 
79 79 1 0.000000 17.322001 13.282000 0.000000 # CT 
80 80 1 0.000000 28.690001 17.879000 0.000000 # CT 
81 81 1 0.000000 13.278000 27.039000 0.000000 # CT 
82 82 1 0.000000 16.052000 6.071000 0.000000 # CT 
83 83 1 0.000000 -0.301000 5.953000 0.000000 # CT 
84 84 1 0.000000 11.399000 26.591000 0.000000 # CT 
85 85 1 0.000000 23.811001 16.938999 0.000000 # CT 
86 86 1 0.000000 7.388000 23.457001 0.000000 # CT 
87 87 1 0.000000 9.947000 11.157000 0.000000 # CT 
88 88 1 0.000000 23.914000 20.899000 0.000000 # CT 
89 89 1 0.000000 14.706000 18.691999 0.000000 # CT 
90 90 1 0.000000 19.639000 1.047000 0.000000 # CT 
91 91 1 0.000000 15.195000 11.391000 0.000000 # CT 
92 92 1 0.000000 9.441000 26.882999 0.000000 # CT 
93 93 1 0.000000 22.042000 6.017000 0.000000 # CT 
94 94 1 0.000000 9.632000 7.989000 0.000000 # CT 
95 95 1 0.000000 21.079000 4.998000 0.000000 # CT 
96 96 1 0.000000 17.204000 11.286000 0.000000 # CT 
97 97 1 0.000000 10.711000 23.403999 0.000000 # CT 
98 98 1 0.000000 6.289000 16.736000 0.000000 # CT 
99 99 1 0.000000 4.153000 3.167000 0.000000 # CT 
100 100 1 0.000000 15.456000 15.552000 0.000000 # CT 
101 101 1 0.000000 16.127001 8.224000 0.000000 # CT 
102 102 1 0.000000 21.261999 24.166000 0.000000 # CT 
103 103 1 0.000000 27.313999 7.458000 0.000000 # CT 
104 104 1 0.000000 -0.263000 1.493000 0.000000 # CT 
105 105 1 0.000000 26.561001 26.617001 0.000000 # CT 
106 106 1 0.000000 7.374000 30.202000 0.000000 # CT 
107 107 1 0.000000 -0.468000 26.087000 0.000000 # CT 
108 108 1 0.000000 28.497000 2.425000 0.000000 # CT 
109 109 1 0.000000 17.083000 4.998000 0.000000 # CT 
110 110 1 0.000000 2.884000 13.312000 0.000000 # CT 
111 111 1 0.000000 12.079000 1.466000 0.000000 # CT 
112 112 1 0.000000 10.819000 13.928000 0.000000 # CT 
113 113 1 0.000000 20.065001 4.064000 0.000000 # CT 
114 114 1 0.000000 20.180000 10.104000 0.000000 # CT 
115 115 1 0.000000 1.322000 12.076000 0.000000 # CT 
116 116 1 0.000000 27.034000 13.014000 0.000000 # CT 
117 117 1 0.000000 7.664000 7.311000 0.000000 # CT 
118 118 1 0.000000 20.841999 20.179001 0.000000 # CT 
119 119 1 0.000000 24.664000 30.343000 0.000000 # CT 
120 120 1 0.000000 7.572000 26.840000 0.000000 # CT 
121 121 1 0.000000 18.688000 18.365000 0.000000 # CT 
122 122 1 0.000000 4.332000 4.907000 0.000000 # CT 
123 123 1 0.000000 23.027000 21.981001 0.000000 # CT 
124 124 1 0.000000 27.466999 27.329000 0.000000 # CT 
125 125 1 0.000000 26.615999 30.226999 0.000000 # CT 
126 126 1 0.000000 7.432000 -0.411000 0.000000 # CT 
127 127 1 0.000000 15.538000 26.834000 0.000000 # CT 
128 128 1 0.000000 8.481000 28.589001 0.000000 # CT 
129 129 1 0.000000 22.660000 18.006001 0.000000 # CT 
130 130 1 0.000000 19.770000 19.271999 0.000000 # CT 
131 131 1 0.000000 27.504999 9.449000 0.000000 # CT 
132 132 1 0.000000 17.062000 22.607000 0.000000 # CT 
133 133 1 0.000000 3.013000 9.918000 0.000000 # CT 
134 134 1 0.000000 19.070999 2.937000 0.000000 # CT 
135 135 1 0.000000 6.780000 9.081000 0.000000 # CT 
136 136 1 0.000000 13.634000 17.792999 0.000000 # CT 
137 137 1 0.000000 18.184000 10.171000 0.000000 # CT 
138 138 1 0.000000 7.717000 21.695000 0.000000 # CT 
139 139 1 0.000000 19.084999 7.112000 0.000000 # CT 
140 140 1 0.000000 0.941000 16.589001 0.000000 # CT 
141 141 1 0.000000 2.660000 4.485000 0.000000 # CT 
142 142 1 0.000000 15.147000 9.254000 0.000000 # CT 
143 143 1 0.000000 1.257000 3.063000 0.000000 # CT 
144 144 1 0.000000 28.708000 12.454000 0.000000 # CT 
145 145 1 0.000000 27.264000 28.662001 0.000000 # CT 
146 146 1 0.000000 19.431999 15.248000 0.000000 # CT 
147 147 1 0.000000 17.087999 7.185000 0.000000 # CT 
148 148 1 0.000000 21.764000 19.099001 0.000000 # CT 
149 149 1 0.000000 30.320000 18.848000 0.000000 # CT 
150 150 1 0.000000 4.652000 1.461000 0.000000 # CT 
151 151 1 0.000000 16.287001 12.384000 0.000000 # CT 
152 152 1 0.000000 25.455000 23.711000 0.000000 # CT 
153 153 1 0.000000 4.594000 23.215000 0.000000 # CT 
154 154 1 0.000000 20.164000 23.289000 0.000000 # CT 
155 155 1 0.000000 30.204000 5.366000 0.000000 # CT 
156 156 1 0.000000 28.789000 28.808001 0.000000 # CT 
157 157 1 0.000000 5.927000 15.056000 0.000000 # CT 
158 158 1 0.000000 19.275999 24.385000 0.000000 # CT 
159 159 1 0.000000 16.375999 14.380000 0.000000 # CT 
160 160 1 0.000000 8.249000 25.346001 0.000000 # CT 
161 161 1 0.000000 10.432000 2.945000 0.000000 # CT 
162 162 1 0.000000 19.209999 11.185000 0.000000 # CT 
163 163 1 0.000000 15.093000 7.258000 0.000000 # CT 
164 164 1 0.000000 12.107000 6.436000 0.000000 # CT 
165 165 1 0.000000 16.534000 16.540001 0.000000 # CT 
166 166 1 0.000000 -0.310000 7.536000 0.000000 # CT 
167 167 1 0.000000 18.122999 8.143000 0.000000 # CT 
168 168 1 0.000000 28.474001 25.673000 0.000000 # CT 
169 169 1 0.000000 6.119000 11.720000 0.000000 # CT 
170 170 1 0.000000 14.876000 20.684000 0.000000 # CT 
171 171 1 0.000000 5.785000 13.448000 0.000000 # CT 
172 172 1 0.000000 10.013000 9.511000 0.000000 # CT 
173 173 1 0.000000 8.418000 18.030001 0.000000 # CT 
174 174 1 0.000000 21.747000 28.579000 0.000000 # CT 
175 175 1 0.000000 15.921000 21.667999 0.000000 # CT 
176 176 1 0.000000 6.380000 20.243000 0.000000 # CT 
177 177 1 0.000000 17.518999 26.601999 0.000000 # CT 
178 178 1 0.000000 10.279000 1.354000 0.000000 # CT 
179 179 1 0.000000 21.039000 22.183001 0.000000 # CT 
180 180 1 0.000000 11.151000 19.875000 0.000000 # CT 
181 181 1 0.000000 23.641001 28.695000 0.000000 # CT 
182 182 1 0.000000 21.423000 15.118000 0.000000 # CT 
183 183 1 0.000000 16.187000 23.733000 0.000000 # CT 
184 184 1 0.000000 14.842000 4.942000 0.000000 # CT 
185 185 1 0.000000 19.500000 26.371000 0.000000 # CT 
186 186 1 0.000000 4.847000 8.670000 0.000000 # CT 
187 187 1 0.000000 23.667999 2.902000 0.000000 # CT 
188 188 1 0.000000 18.372000 14.257000 0.000000 # CT 
189 189 1 0.000000 24.139000 22.875999 0.000000 # CT 
190 190 1 0.000000 25.288000 13.949000 0.000000 # CT 
191 191 1 0.000000 10.204000 25.059000 0.000000 # CT 
192 192 1 0.000000 28.745001 27.334000 0.000000 # CT 
193 193 1 0.000000 28.649000 15.911000 0.000000 # CT 
194 194 1 0.000000 25.440001 10.202000 0.000000 # CT 
195 195 1 0.000000 2.919000 14.856000 0.000000 # CT 
196 196 1 0.000000 22.320999 12.025000 0.000000 # CT 
197 197 1 0.000000 30.322001 20.840000 0.000000 # CT 
198 198 1 0.000000 25.525999 28.556999 0.000000 # CT 
199 199 1 0.000000 9.252000 6.740000 0.000000 # CT 
200 200 1 0.000000 4.361000 14.850000 0.000000 # CT 
201 201 1 0.000000 26.523001 10.398000 0.000000 # CT 
202 202 1 0.000000 17.767000 28.738001 0.000000 # CT 
203 203 1 0.000000 19.152000 9.110000 0.000000 # CT 
204 204 1 0.000000 25.093000 1.396000 0.000000 # CT 
205 205 1 0.000000 6.531000 28.400000 0.000000 # CT 
206 206 1 0.000000 18.073999 4.076000 0.000000 # CT 
207 207 1 0.000000 1.205000 5.854000 0.000000 # CT 
208 208 1 0.000000 30.356001 14.927000 0.000000 # CT 
209 209 1 0.000000 5.944000 4.587000 0.000000 # CT 
210 210 1 0.000000 4.667000 19.586000 0.000000 # CT 
211 211 1 0.000000 9.195000 22.614000 0.000000 # CT 
212 212 1 0.000000 30.233999 3.389000 0.000000 # CT 
213 213 1 0.000000 -0.306000 13.155000 0.000000 # CT 
214 214 1 0.000000 9.382000 15.020000 0.000000 # CT 
215 215 1 0.000000 22.377001 25.065001 0.000000 # CT 
216 216 1 0.000000 7.300000 4.412000 0.000000 # CT 
217 217 1 0.000000 1.564000 18.330999 0.000000 # CT 
218 218 1 0.000000 23.247999 23.958000 0.000000 # CT 
219 219 1 0.000000 25.573000 25.693001 0.000000 # CT 
220 220 1 0.000000 22.264999 10.031000 0.000000 # CT 
221 221 1 0.000000 28.683001 19.850000 0.000000 # CT 
222 222 1 0.000000 26.941000 14.924000 0.000000 # CT 
223 223 1 0.000000 -0.289000 9.261000 0.000000 # CT 
224 224 1 0.000000 21.833000 3.347000 0.000000 # CT 
225 225 1 0.000000 16.087999 4.078000 0.000000 # CT 
226 226 1 0.000000 14.382000 14.529000 0.000000 # CT 
227 227 1 0.000000 1.401000 13.556000 0.000000 # CT 
228 228 1 0.000000 -0.267000 30.072001 0.000000 # CT 
229 229 1 0.000000 17.444000 15.400000 0.000000 # CT 
230 230 1 0.000000 14.817000 30.287001 0.000000 # CT 
231 231 1 0.000000 5.691000 10.145000 0.000000 # CT 
232 232 1 0.000000 23.833000 18.917000 0.000000 # CT 
233 233 1 0.000000 25.326000 17.950001 0.000000 # CT 
234 234 1 0.000000 27.118000 18.830000 0.000000 # CT 
235 235 1 0.000000 6.228000 7.510000 0.000000 # CT 
236 236 1 0.000000 28.660000 14.155000 0.000000 # CT 
237 237 1 0.000000 9.530000 16.995001 0.000000 # CT 
238 238 1 0.000000 26.798000 1.636000 0.000000 # CT 
239 239 1 0.000000 17.955999 21.476999 0.000000 # CT 
240 240 1 0.000000 21.146999 9.079000 0.000000 # CT 
241 241 1 0.000000 30.099001 24.729000 0.000000 # CT 
242 242 1 0.000000 13.926000 21.805000 0.000000 # CT 
243 243 1 0.000000 19.315001 13.183000 0.000000 # CT 
244 244 1 0.000000 1.257000 1.591000 0.000000 # CT 
245 245 1 0.000000 24.620001 26.981001 0.000000 # CT 
246 246 1 0.000000 28.358000 30.333000 0.000000 # CT 
247 247 1 0.000000 15.305000 13.384000 0.000000 # CT 
248 248 1 0.000000 9.344000 30.316999 0.000000 # CT 
249 249 1 0.000000 25.466000 6.764000 0.000000 # CT 
250 250 1 0.000000 -0.354000 24.107000 0.000000 # CT 
251 251 1 0.000000 19.757000 28.660000 0.000000 # CT 
252 252 1 0.000000 28.650999 8.322000 0.000000 # CT 
253 253 1 0.000000 20.518000 16.191999 0.000000 # CT 
254 254 1 0.000000 23.632000 10.994000 0.000000 # CT 
255 255 1 0.000000 5.455000 30.320999 0.000000 # CT 
256 256 1 0.000000 22.386999 14.021000 0.000000 # CT 
257 257 1 0.000000 9.283000 -0.365000 0.000000 # CT 
258 258 1 0.000000 20.160999 8.063000 0.000000 # CT 
259 259 1 0.000000 15.622000 17.624001 0.000000 # CT 
260 260 1 0.000000 12.517000 18.857000 0.000000 # CT 
261 261 1 0.000000 2.743000 6.087000 0.000000 # CT 
262 262 1 0.000000 10.371000 28.618999 0.000000 # CT 
263 263 1 0.000000 0.378000 19.913000 0.000000 # CT 
264 264 1 0.000000 14.133000 8.283000 0.000000 # CT 
265 265 1 0.000000 4.530000 10.577000 0.000000 # CT 
266 266 1 0.000000 5.598000 26.820000 0.000000 # CT 
267 267 1 0.000000 2.655000 3.019000 0.000000 # CT 
268 268 1 0.000000 6.980000 13.408000 0.000000 # CT 
269 269 1 0.000000 1.415000 28.479000 0.000000 # CT 
270 270 1 0.000000 23.469000 25.936001 0.000000 # CT 
271 271 1 0.000000 4.192000 26.924000 0.000000 # CT 
272 272 1 0.000000 8.498000 1.259000 0.000000 # CT 
273 273 1 0.000000 1.209000 4.458000 0.000000 # CT 
274 274 1 0.000000 11.832000 3.109000 0.000000 # CT 
275 275 1 0.000000 -0.176000 2.985000 0.000000 # CT 
276 276 1 0.000000 12.110000 24.767000 0.000000 # CT 
277 277 1 0.000000 20.283001 12.142000 0.000000 # CT 
278 278 1 0.000000 5.504000 -0.323000 0.000000 # CT 
279 279 1 0.000000 23.205000 6.775000 0.000000 # CT 
280 280 1 0.000000 20.393000 25.275999 0.000000 # CT 
281 281 1 0.000000 16.799999 30.264999 0.000000 # CT 
282 282 1 0.000000 4.405000 12.017000 0.000000 # CT 
283 283 1 0.000000 6.588000 25.108000 0.000000 # CT 
284 284 1 0.000000 20.370001 2.098000 0.000000 # CT 
285 285 1 0.000000 4.355000 13.459000 0.000000 # CT 
286 286 1 0.000000 2.796000 28.280001 0.000000 # CT 
287 287 1 0.000000 16.164000 2.028000 0.000000 # CT 
288 288 1 0.000000 -0.394000 11.168000 0.000000 # CT 
289 289 1 0.000000 24.445999 9.773000 0.000000 # CT 
290 290 1 0.000000 17.082001 3.009000 0.000000 # CT 
291 291 1 0.000000 26.903000 22.694000 0.000000 # CT 
292 292 1 0.000000 1.171000 7.298000 0.000000 # CT 
293 293 1 0.000000 1.442000 14.990000 0.000000 # CT 
294 294 1 0.000000 30.247000 26.582001 0.000000 # CT 
295 295 1 0.000000 13.705000 28.974001 0.000000 # CT 
296 296 1 0.000000 28.593000 6.335000 0.000000 # CT 
297 297 1 0.000000 23.409000 9.018000 0.000000 # CT 
298 298 1 0.000000 24.365999 24.860001 0.000000 # CT 
299 299 1 0.000000 19.080999 5.010000 0.000000 # CT 
300 300 1 0.000000 30.302999 22.829000 0.000000 # CT 
301 301 1 0.000000 1.272000 25.172001 0.000000 # CT 
302 302 1 0.000000 13.206000 11.278000 0.000000 # CT 
303 303 1 0.000000 4.499000 25.281000 0.000000 # CT 
304 304 1 0.000000 20.834999 -0.127000 0.000000 # CT 
305 305 1 0.000000 13.782000 19.792999 0.000000 # CT 
306 306 1 0.000000 12.891000 5.342000 0.000000 # CT 
307 307 1 0.000000 11.154000 -0.288000 0.000000 # CT 
308 308 1 0.000000 28.455999 10.785000 0.000000 # CT 
309 309 1 0.000000 -0.358000 18.063000 0.000000 # CT 
310 310 1 0.000000 8.816000 5.700000 0.000000 # CT 
311 311 1 0.000000 -0.199000 4.431000 0.000000 # CT 
312 312 1 0.000000 4.832000 18.070999 0.000000 # CT 
313 313 1 0.000000 11.065000 17.891001 0.000000 # CT 
314 314 1 0.000000 30.239000 11.213000 0.000000 # CT 
315 315 1 0.000000 3.338000 18.096001 0.000000 # CT 
316 316 1 0.000000 14.077000 6.286000 0.000000 # CT 
317 317 1 0.000000 13.274000 13.724000 0.000000 # CT 
318 318 1 0.000000 30.138000 1.475000 0.000000 # CT 
319 319 1 0.000000 14.062000 1.493000 0.000000 # CT 
320 320 1 0.000000 22.829000 19.997999 0.000000 # CT 
321 321 1 0.000000 19.945000 21.285000 0.000000 # CT 
322 322 1 0.000000 27.134001 20.858999 0.000000 # CT 
323 323 1 0.000000 7.568000 12.554000 0.000000 # CT 
324 324 1 0.000000 7.467000 5.875000 0.000000 # CT 
325 325 1 0.000000 5.920000 22.108000 0.000000 # CT 
326 326 1 0.000000 30.327000 13.066000 0.000000 # CT 
327 327 1 0.000000 15.777000 19.618999 0.000000 # CT 
328 328 1 0.000000 14.189000 10.277000 0.000000 # CT 
329 329 1 0.000000 5.968000 6.010000 0.000000 # CT 
330 330 1 0.000000 12.572000 20.855000 0.000000 # CT 
331 331 1 0.000000 25.354000 11.956000 0.000000 # CT 
332 332 1 0.000000 10.162000 12.547000 0.000000 # CT 
333 333 1 0.000000 8.773000 4.362000 0.000000 # CT 
334 334 1 0.000000 14.628000 27.931000 0.000000 # CT 
335 335 1 0.000000 25.341999 21.726000 0.000000 # CT 
336 336 1 0.000000 8.632000 9.693000 0.000000 # CT 
337 337 1 0.000000 17.157000 9.183000 0.000000 # CT 
338 338 1 0.000000 2.900000 24.237000 0.000000 # CT 
339 339 1 0.000000 9.793000 20.969999 0.000000 # CT 
340 340 1 0.000000 16.885000 -0.197000 0.000000 # CT 
341 341 1 0.000000 12.442000 16.874001 0.000000 # CT 
342 342 1 0.000000 26.955999 16.922001 0.000000 # CT 
343 343 1 0.000000 11.688000 4.496000 0.000000 # CT 
344 344 1 0.000000 1.650000 -0.102000 0.000000 # CT 
345 345 1 0.000000 1.228000 27.054001 0.000000 # CT 
346 346 1 0.000000 16.186001 10.224000 0.000000 # CT 
347 347 1 0.000000 25.542999 19.858000 0.000000 # CT 
348 348 1 0.000000 1.305000 23.180000 0.000000 # CT 
349 349 1 0.000000 5.526000 23.983000 0.000000 # CT 
350 350 1 0.000000 30.406000 28.395000 0.000000 # CT 
351 351 1 0.000000 0.990000 28.976999 0.000000 # CT 
352 352 1 0.000000 11.232000 21.862000 0.000000 # CT 
353 353 1 0.000000 1.695000 30.351999 0.000000 # CT 
354 354 1 0.000000 25.309000 15.943000 0.000000 # CT 
355 355 1 0.000000 7.665000 18.827000 0.000000 # CT 
356 356 1 0.000000 12.692000 28.370001 0.000000 # CT 
357 357 1 0.000000 2.733000 16.497000 0.000000 # CT 
358 358 1 0.000000 25.033001 4.482000 0.000000 # CT 
359 359 1 0.000000 21.593000 17.110001 0.000000 # CT 
360 360 1 0.000000 12.289000 14.751000 0.000000 # CT 
361 361 1 0.000000 18.851000 -0.338000 0.000000 # CT 
362 362 1 0.000000 30.312000 7.307000 0.000000 # CT 
363 363 1 0.000000 20.622000 27.261000 0.000000 # CT 
364 364 1 0.000000 18.785999 30.266001 0.000000 # CT 
365 365 1 0.000000 21.094999 6.990000 0.000000 # CT 
366 366 1 0.000000 18.406000 25.492001 0.000000 # CT 
367 367 1 0.000000 12.078000 12.570000 0.000000 # CT 
368 368 1 0.000000 17.612000 17.452000 0.000000 # CT 
369 369 1 0.000000 25.941999 8.587000 0.000000 # CT 
370 370 1 0.000000 -0.349000 15.096000 0.000000 # CT 
371 371 1 0.000000 13.886000 24.059999 0.000000 # CT 
372 372 1 0.000000 20.049000 6.058000 0.000000 # CT 
373 373 1 0.000000 23.764999 14.958000 0.000000 # CT 
374 374 1 0.000000 18.525999 16.368999 0.000000 # CT 
375 375 1 0.000000 3.072000 22.819000 0.000000 # CT 
376 376 1 0.000000 7.403000 2.913000 0.000000 # CT 
377 377 1 0.000000 22.747999 -0.335000 0.000000 # CT 
378 378 1 0.000000 22.211000 8.001000 0.000000 # CT 
379 379 1 0.000000 15.308000 24.844999 0.000000 # CT 
380 380 1 0.000000 2.838000 26.381001 0.000000 # CT 
381 381 1 0.000000 23.052000 4.790000 0.000000 # CT 
382 382 1 0.000000 7.651000 10.455000 0.000000 # CT 
383 383 1 0.000000 12.612000 22.853001 0.000000 # CT 
384 384 1 0.000000 19.601000 17.278999 0.000000 # CT 
385 385 1 0.000000 8.973000 2.856000 0.000000 # CT 
386 386 1 0.000000 26.813000 3.497000 0.000000 # CT 
387 387 1 0.000000 11.136000 30.177999 0.000000 # CT 
388 388 1 0.000000 15.667000 1.075000 0.000000 # CT 
389 389 1 0.000000 20.768999 30.211000 0.000000 # CT 
390 390 1 0.000000 23.729000 12.972000 0.000000 # CT 
391 391 1 0.000000 30.268999 16.854000 0.000000 # CT 
392 392 1 0.000000 1.318000 10.436000 0.000000 # CT 
393 393 1 0.000000 2.972000 8.042000 0.000000 # CT 
394 394 1 0.000000 22.677000 30.341999 0.000000 # CT 
395 395 1 0.000000 1.371000 8.801000 0.000000 # CT 
396 396 1 0.000000 17.768999 19.445999 0.000000 # CT 
397 397 1 0.000000 10.990000 15.898000 0.000000 # CT 
398 398 1 0.000000 9.626000 18.983000 0.000000 # CT 
399 399 1 0.000000 20.391001 14.139000 0.000000 # CT 
400 400 1 0.000000 21.933001 21.090000 0.000000 # CT 

